/*--------------------------------*- C++ -*----------------------------------*\
  =========                 |
  \\      /  F ield         | OpenFOAM: The Open Source CFD Toolbox
   \\    /   O peration     | Website:  https://openfoam.org
    \\  /    A nd           | Version:  8
     \\/     M anipulation  |
\*---------------------------------------------------------------------------*/
FoamFile
{
    version     2.0;
    format      ascii;
    class       volScalarField;
    object      k;
}
// * * * * * * * * * * * * * * * * * * * * * * * * * * * * * * * * * * * * * //

dimensions          [0 2 -2 0 0 0 0];

internalField       uniform 1.5e-06;    // 0.02

boundaryField
{
    ".*Border"
    {
        type        inletOutlet;
        value       $internalField;
        inletValue  $internalField;
    }

    fluid_to_solid
    {
        type        kqRWallFunction;
        value       $internalField;
    }

    #includeEtc "caseDicts/setConstraintTypes"
}

// ************************************************************************* //
