/*--------------------------------*- C++ -*----------------------------------*\
  =========                 |
  \\      /  F ield         | OpenFOAM: The Open Source CFD Toolbox
   \\    /   O peration     | Website:  https://openfoam.org
    \\  /    A nd           | Version:  8
     \\/     M anipulation  |
\*---------------------------------------------------------------------------*/
FoamFile
{
    version     2.0;
    format      ascii;
    class       volScalarField;
    object      T;
}
// * * * * * * * * * * * * * * * * * * * * * * * * * * * * * * * * * * * * * //

#include "$FOAM_CASE/constant/parameters"

dimensions                  [0 0 0 1 0 0 0];

internalField               uniform $Tinfty;

boundaryField
{
    ".*Border"
    {
        type                inletOutlet;
        value               $internalField;
        inletValue          $internalField;
    }

    fluid_to_solid
    {
        type                compressible::turbulentTemperatureCoupledBaffleMixed;
        neighbourFieldName  T;
        kappa               kappa;
        Tnbr                T;
        value               $internalField;
    }

    #includeEtc "caseDicts/setConstraintTypes"
}


// ************************************************************************* //
